<?xml version="1.0" encoding="UTF-8"?>

<!-- generated on 01/29/21 16:24:39 by Eclipse SUMO sumo Version 1.8.0
<configuration xmlns:xsi="http://www.w3.org/2001/XMLSchema-instance" xsi:noNamespaceSchemaLocation="http://sumo.dlr.de/xsd/sumoConfiguration.xsd">

    <input>
        <net-file value="osm.net.xml"/>
        <route-files value="trips.trips_3.xml,osm.pedestrian.rou.xml"/>
        <additional-files value="emissions.xml,osm.poly.xml,osm_stops.add.xml,centrale_personnelDemand.add.xml,centrale_studentDemand.add.xml,ens_personnelDemand.add.xml,ens_studentDemand.add.xml,iut_personnelDemand.add.xml,iut_studentDemand.add.xml,polytech_personnelDemand.add.xml,polytech_studentDemand.add.xml"/>
    </input>

    <output>
        <tripinfo-output value="true"/>
    </output>

    <processing>
        <ignore-route-errors value="true"/>
    </processing>

    <routing>
        <device.rerouting.adaptation-steps value="18"/>
        <device.rerouting.adaptation-interval value="10"/>
    </routing>

    <report>
        <verbose value="true"/>
        <duration-log.statistics value="true"/>
        <no-step-log value="true"/>
    </report>

    <gui_only>
        <gui-settings-file value="osm.view.xml"/>
    </gui_only>

</configuration>
-->

<meandata xmlns:xsi="http://www.w3.org/2001/XMLSchema-instance" xsi:noNamespaceSchemaLocation="http://sumo.dlr.de/xsd/meandata_file.xsd">
    <interval begin="0.00" end="12241.00" id="edges_emissions_dump">
        <edge id="-115229320#0" sampledSeconds="66.57" CO_abs="1579.640212" CO2_abs="859829.129921" HC_abs="332.934415" PMx_abs="165.894156" NOx_abs="7033.640627" fuel_abs="366.655704" electricity_abs="0"
            CO_normed="339.096429" CO2_normed="184576.833015" HC_normed="71.469991" PMx_normed="35.611980" NOx_normed="1509.889659" fuel_normed="78.708834" electricity_normed="0"
            traveltime="0.21" CO_perVeh="4.904937" CO2_perVeh="2669.853149" HC_perVeh="1.033794" PMx_perVeh="0.515118" NOx_perVeh="21.840139" fuel_perVeh="1.138502" electricity_perVeh="0"/>
        <edge id="-115229320#1" sampledSeconds="636.70" CO_abs="11749.887246" CO2_abs="3527186.248111" HC_abs="2779.229343" PMx_abs="1177.553079" NOx_abs="37674.719896" fuel_abs="1503.097490" electricity_abs="0"
            CO_normed="1191.574784" CO2_normed="357697.576353" HC_normed="281.846075" PMx_normed="119.417534" NOx_normed="3820.653362" fuel_normed="152.431511" electricity_normed="0"
            traveltime="3.76" CO_perVeh="69.299721" CO2_perVeh="20803.010209" HC_perVeh="16.391631" PMx_perVeh="6.945096" NOx_perVeh="222.201927" fuel_perVeh="8.865127" electricity_perVeh="0"/>
        <edge id="-115229320#2" sampledSeconds="258.11" CO_abs="2639.857256" CO2_abs="1220096.390614" HC_abs="599.570571" PMx_abs="274.278406" NOx_abs="10622.353212" fuel_abs="520.230155" electricity_abs="0"
            CO_normed="51.688760" CO2_normed="23889.651400" HC_normed="11.739672" PMx_normed="5.370408" NOx_normed="207.987104" fuel_normed="10.186176" electricity_normed="0"
            traveltime="2.87" CO_perVeh="29.349116" CO2_perVeh="13564.654172" HC_perVeh="6.665840" PMx_perVeh="3.049342" NOx_perVeh="118.096036" fuel_perVeh="5.783758" electricity_perVeh="0"/>
        <edge id="-131335283" sampledSeconds="17.06" CO_abs="264.861823" CO2_abs="132838.478501" HC_abs="62.699132" PMx_abs="27.958186" NOx_abs="1114.454992" fuel_abs="56.648192" electricity_abs="0"
            CO_normed="0.626008" CO2_normed="313.967283" HC_normed="0.148191" PMx_normed="0.066080" NOx_normed="2.634044" fuel_normed="0.133890" electricity_normed="0"
            traveltime="15.56" CO_perVeh="241.565320" CO2_perVeh="121154.378655" HC_perVeh="57.184292" PMx_perVeh="25.499063" NOx_perVeh="1016.430658" fuel_perVeh="51.665576" electricity_perVeh="0"/>
        <edge id="-131339230" sampledSeconds="47.73" CO_abs="1097.270509" CO2_abs="745030.151618" HC_abs="219.337696" PMx_abs="118.377808" NOx_abs="5635.593724" fuel_abs="317.757295" electricity_abs="0"
            CO_normed="1.626923" CO2_normed="1104.656487" HC_normed="0.325212" PMx_normed="0.175519" NOx_normed="8.355897" fuel_normed="0.471139" electricity_normed="0"
            traveltime="15.40" CO_perVeh="353.984780" CO2_perVeh="240350.335246" HC_perVeh="70.759403" PMx_perVeh="38.189254" NOx_perVeh="1818.069830" fuel_perVeh="102.510042" electricity_perVeh="0"/>
        <edge id="-134230455#0" sampledSeconds="14.04" CO_abs="155.583120" CO2_abs="84591.392615" HC_abs="32.346744" PMx_abs="16.308236" NOx_abs="692.839343" fuel_abs="36.071672" electricity_abs="0"
            CO_normed="2.189282" CO2_normed="1190.324826" HC_normed="0.455166" PMx_normed="0.229481" NOx_normed="9.749265" fuel_normed="0.507581" electricity_normed="0"
            traveltime="2.97" CO_perVeh="32.945159" CO2_perVeh="17912.463076" HC_perVeh="6.849513" PMx_perVeh="3.453314" NOx_perVeh="146.710661" fuel_perVeh="7.638277" electricity_perVeh="0"/>
        <edge id="-134230455#1" sampledSeconds="7.73" CO_abs="109.790483" CO2_abs="69522.859857" HC_abs="25.467925" PMx_abs="11.938178" NOx_abs="534.530218" fuel_abs="29.653470" electricity_abs="0"
            CO_normed="1.423036" CO2_normed="901.111922" HC_normed="0.330099" PMx_normed="0.154735" NOx_normed="6.928247" fuel_normed="0.384350" electricity_normed="0"
            traveltime="1.68" CO_perVeh="23.937216" CO2_perVeh="15157.813877" HC_perVeh="5.552678" PMx_perVeh="2.602837" NOx_perVeh="116.541661" fuel_perVeh="6.465237" electricity_perVeh="0"/>
        <edge id="-134230455#2" sampledSeconds="14.74" CO_abs="401.764546" CO2_abs="281214.603456" HC_abs="78.863134" PMx_abs="43.473693" NOx_abs="2107.157083" fuel_abs="119.940468" electricity_abs="0"
            CO_normed="2.177998" CO2_normed="1524.487017" HC_normed="0.427523" PMx_normed="0.235674" NOx_normed="11.423068" fuel_normed="0.650207" electricity_normed="0"
            traveltime="4.02" CO_perVeh="109.664033" CO2_perVeh="76759.206226" HC_perVeh="21.526164" PMx_perVeh="11.866404" NOx_perVeh="575.161116" fuel_perVeh="32.738467" electricity_perVeh="0"/>
        <edge id="-134230455#3" sampledSeconds="8.76" CO_abs="384.203753" CO2_abs="268187.502031" HC_abs="71.054676" PMx_abs="41.273571" NOx_abs="2016.807886" fuel_abs="114.379409" electricity_abs="0"
            CO_normed="5.294839" CO2_normed="3695.980940" HC_normed="0.979228" PMx_normed="0.568805" NOx_normed="27.794299" fuel_normed="1.576301" electricity_normed="0"
            traveltime="1.87" CO_perVeh="81.972686" CO2_perVeh="57219.768980" HC_perVeh="15.160036" PMx_perVeh="8.806019" NOx_perVeh="430.300743" fuel_perVeh="24.403685" electricity_perVeh="0"/>
        <edge id="-134230455#5" sampledSeconds="8.52" CO_abs="349.959743" CO2_abs="233082.138528" HC_abs="65.557344" PMx_abs="37.352244" NOx_abs="1780.294215" fuel_abs="99.403746" electricity_abs="0"
            CO_normed="6.987164" CO2_normed="4653.629995" HC_normed="1.308893" PMx_normed="0.745761" NOx_normed="35.544682" fuel_normed="1.984658" electricity_normed="0"
            traveltime="1.57" CO_perVeh="64.283664" CO2_perVeh="42814.564167" HC_perVeh="12.042146" PMx_perVeh="6.861187" NOx_perVeh="327.020000" fuel_perVeh="18.259349" electricity_perVeh="0"/>
        <edge id="-134889167#0" sampledSeconds="46.95" CO_abs="664.219678" CO2_abs="418425.394972" HC_abs="155.071460" PMx_abs="72.230808" NOx_abs="3221.770512" fuel_abs="178.470559" electricity_abs="0"
            CO_normed="3.769640" CO2_normed="2374.686203" HC_normed="0.880076" PMx_normed="0.409931" NOx_normed="18.284488" fuel_normed="1.012872" electricity_normed="0"
            traveltime="3.81" CO_perVeh="53.932723" CO2_perVeh="33974.935706" HC_perVeh="12.591355" PMx_perVeh="5.864933" NOx_perVeh="261.598477" fuel_perVeh="14.491295" electricity_perVeh="0"/>
        <edge id="-134889167#1" sampledSeconds="102.98" CO_abs="3743.667130" CO2_abs="2514854.442800" HC_abs="720.223170" PMx_abs="401.358148" NOx_abs="19127.900372" fuel_abs="1072.551842" electricity_abs="0"
            CO_normed="10.908438" CO2_normed="7327.877206" HC_normed="2.098613" PMx_normed="1.169492" NOx_normed="55.735594" fuel_normed="3.125242" electricity_normed="0"
            traveltime="9.20" CO_perVeh="334.586313" CO2_perVeh="224762.471364" HC_perVeh="64.369188" PMx_perVeh="35.870962" NOx_perVeh="1709.535982" fuel_perVeh="95.858193" electricity_perVeh="0"/>
        <edge id="-140997942" sampledSeconds="7.34" CO_abs="166.459207" CO2_abs="95746.195876" HC_abs="34.562728" PMx_abs="17.584031" NOx_abs="767.399874" fuel_abs="40.830719" electricity_abs="0"
            CO_normed="1.194306" CO2_normed="686.956461" HC_normed="0.247979" PMx_normed="0.126161" NOx_normed="5.505914" fuel_normed="0.292951" electricity_normed="0"
            traveltime="5.68" CO_perVeh="128.763218" CO2_perVeh="74063.720871" HC_perVeh="26.735728" PMx_perVeh="13.601990" NOx_perVeh="593.616170" fuel_perVeh="31.584283" electricity_perVeh="0"/>
        <edge id="-140997946#0" sampledSeconds="31.66" CO_abs="370.494344" CO2_abs="165945.233530" HC_abs="86.414543" PMx_abs="38.499778" NOx_abs="1461.678820" fuel_abs="70.756207" electricity_abs="0"
            CO_normed="0.701791" CO2_normed="314.333598" HC_normed="0.163686" PMx_normed="0.072926" NOx_normed="2.768713" fuel_normed="0.134026" electricity_normed="0"
            traveltime="29.39" CO_perVeh="343.913379" CO2_perVeh="154039.560911" HC_perVeh="80.214767" PMx_perVeh="35.737627" NOx_perVeh="1356.811273" fuel_perVeh="65.679832" electricity_perVeh="0"/>
        <edge id="-143311245#0" sampledSeconds="4.56" CO_abs="45.189794" CO2_abs="23467.750285" HC_abs="10.467741" PMx_abs="4.776605" NOx_abs="194.425223" fuel_abs="10.007798" electricity_abs="0"
            CO_normed="66.450151" CO2_normed="34508.578149" HC_normed="15.392479" PMx_normed="7.023846" NOx_normed="285.896087" fuel_normed="14.716148" electricity_normed="0"
            traveltime="0.02" CO_perVeh="0.246939" CO2_perVeh="128.239073" HC_perVeh="0.057201" PMx_perVeh="0.026102" NOx_perVeh="1.062433" fuel_perVeh="0.054687" electricity_perVeh="0"/>
        <edge id="-143311245#2" sampledSeconds="53.46" CO_abs="686.085043" CO2_abs="354091.674363" HC_abs="159.440687" PMx_abs="72.494783" NOx_abs="2940.224870" fuel_abs="151.001609" electricity_abs="0"
            CO_normed="1.531951" CO2_normed="790.646893" HC_normed="0.356013" PMx_normed="0.161873" NOx_normed="6.565192" fuel_normed="0.337170" electricity_normed="0"
            traveltime="16.33" CO_perVeh="209.598638" CO2_perVeh="108174.829936" HC_perVeh="48.709050" PMx_perVeh="22.147120" NOx_perVeh="898.237232" fuel_perVeh="46.130916" electricity_perVeh="0"/>
        <edge id="-160212545#0" sampledSeconds="144.39" CO_abs="3029.096780" CO2_abs="1170004.102806" HC_abs="681.715848" PMx_abs="308.232596" NOx_abs="11052.354334" fuel_abs="498.749352" electricity_abs="0"
            CO_normed="11.780455" CO2_normed="4550.261066" HC_normed="2.651260" PMx_normed="1.198747" NOx_normed="42.983693" fuel_normed="1.939685" electricity_normed="0"
            traveltime="41.54" CO_perVeh="871.415577" CO2_perVeh="336588.717394" HC_perVeh="196.117144" PMx_perVeh="88.672863" NOx_perVeh="3179.559593" fuel_perVeh="143.481039" electricity_perVeh="0"/>
        <edge id="-164014447" sampledSeconds="14.73" CO_abs="140.438612" CO2_abs="70051.918744" HC_abs="33.491193" PMx_abs="14.830041" NOx_abs="588.708626" fuel_abs="29.873321" electricity_abs="0"
            CO_normed="1.500258" CO2_normed="748.340805" HC_normed="0.357775" PMx_normed="0.158424" NOx_normed="6.288974" fuel_normed="0.319127" electricity_normed="0"
            traveltime="3.42" CO_perVeh="32.602032" CO2_perVeh="16262.158049" HC_perVeh="7.774792" PMx_perVeh="3.442710" NOx_perVeh="136.665389" fuel_perVeh="6.934923" electricity_perVeh="0"/>
        <edge id="-164014457#0" sampledSeconds="9.39" CO_abs="170.557716" CO2_abs="92120.240485" HC_abs="37.434038" PMx_abs="17.988598" NOx_abs="754.026110" fuel_abs="39.283944" electricity_abs="0"
            CO_normed="0.892684" CO2_normed="482.149403" HC_normed="0.195927" PMx_normed="0.094151" NOx_normed="3.946508" fuel_normed="0.205609" electricity_normed="0"
            traveltime="7.73" CO_perVeh="140.543159" CO2_perVeh="75909.023506" HC_perVeh="30.846438" PMx_perVeh="14.822984" NOx_perVeh="621.333438" fuel_perVeh="32.370799" electricity_perVeh="0"/>
        <edge id="-164014457#1" sampledSeconds="2.61" CO_abs="27.205726" CO2_abs="15095.569019" HC_abs="5.986341" PMx_abs="2.880968" NOx_abs="122.252875" fuel_abs="6.437580" electricity_abs="0"
            CO_normed="0.864042" CO2_normed="479.428784" HC_normed="0.190124" PMx_normed="0.091498" NOx_normed="3.882699" fuel_normed="0.204455" electricity_normed="0"
            traveltime="1.14" CO_perVeh="11.849719" CO2_perVeh="6575.022065" HC_perVeh="2.607409" PMx_perVeh="1.254833" NOx_perVeh="53.248430" fuel_perVeh="2.803951" electricity_perVeh="0"/>
        <edge id="-174955280#1" sampledSeconds="245.76" CO_abs="3714.867497" CO2_abs="2335454.073469" HC_abs="801.535571" PMx_abs="399.621215" NOx_abs="18076.873747" fuel_abs="996.067671" electricity_abs="0"
            CO_normed="8.421482" CO2_normed="5294.397151" HC_normed="1.817055" PMx_normed="0.905928" NOx_normed="40.979675" fuel_normed="2.258052" electricity_normed="0"
            traveltime="11.25" CO_perVeh="170.016849" CO2_perVeh="106885.788807" HC_perVeh="36.683557" PMx_perVeh="18.289304" NOx_perVeh="827.317022" fuel_perVeh="45.586629" electricity_perVeh="0"/>
        <edge id="-174955280#2" sampledSeconds="150.63" CO_abs="4063.690023" CO2_abs="2794602.440017" HC_abs="808.124016" PMx_abs="439.074741" NOx_abs="21052.520262" fuel_abs="1191.914399" electricity_abs="0"
            CO_normed="13.784375" CO2_normed="9479.524193" HC_normed="2.741224" PMx_normed="1.489378" NOx_normed="71.411902" fuel_normed="4.043073" electricity_normed="0"
            traveltime="6.62" CO_perVeh="178.481218" CO2_perVeh="122741.657320" HC_perVeh="35.493593" PMx_perVeh="19.284590" NOx_perVeh="924.647167" fuel_perVeh="52.350040" electricity_perVeh="0"/>
        <edge id="-174955280#3" sampledSeconds="32.56" CO_abs="1380.190006" CO2_abs="946797.890526" HC_abs="257.624064" PMx_abs="147.981377" NOx_abs="7159.433082" fuel_abs="403.796171" electricity_abs="0"
            CO_normed="73.004510" CO2_normed="50080.435044" HC_normed="13.626905" PMx_normed="7.827406" NOx_normed="378.694890" fuel_normed="21.358611" electricity_normed="0"
            traveltime="0.52" CO_perVeh="21.850388" CO2_perVeh="14989.169337" HC_perVeh="4.078559" PMx_perVeh="2.342758" NOx_perVeh="113.344100" fuel_perVeh="6.392673" electricity_perVeh="0"/>
        <edge id="-174955283#0" sampledSeconds="42.86" CO_abs="412.572367" CO2_abs="240895.394054" HC_abs="91.092508" PMx_abs="44.026313" NOx_abs="1913.121009" fuel_abs="102.736535" electricity_abs="0"
            CO_normed="2.188580" CO2_normed="1277.882367" HC_normed="0.483220" PMx_normed="0.233547" NOx_normed="10.148569" fuel_normed="0.544988" electricity_normed="0"
            traveltime="5.87" CO_perVeh="56.526819" CO2_perVeh="33005.240822" HC_perVeh="12.480646" PMx_perVeh="6.032075" NOx_perVeh="262.118003" fuel_perVeh="14.076002" electricity_perVeh="0"/>
        <edge id="-174955283#2" sampledSeconds="12.58" CO_abs="187.838548" CO2_abs="119727.243571" HC_abs="43.242572" PMx_abs="20.424274" NOx_abs="918.816489" fuel_abs="51.066995" electricity_abs="0"
            CO_normed="3.329844" CO2_normed="2122.424259" HC_normed="0.766568" PMx_normed="0.362064" NOx_normed="16.288009" fuel_normed="0.905273" electricity_normed="0"
            traveltime="1.22" CO_perVeh="18.166267" CO2_perVeh="11579.077596" HC_perVeh="4.182082" PMx_perVeh="1.975275" NOx_perVeh="88.860706" fuel_perVeh="4.938798" electricity_perVeh="0"/>
        <edge id="-174955283#3" sampledSeconds="30.32" CO_abs="441.844802" CO2_abs="283859.156090" HC_abs="100.687456" PMx_abs="48.035912" NOx_abs="2173.662931" fuel_abs="121.073527" electricity_abs="0"
            CO_normed="2.284123" CO2_normed="1467.413723" HC_normed="0.520505" PMx_normed="0.248322" NOx_normed="11.236780" fuel_normed="0.625891" electricity_normed="0"
            traveltime="4.17" CO_perVeh="60.813255" CO2_perVeh="39068.919993" HC_perVeh="13.858106" PMx_perVeh="6.611417" NOx_perVeh="299.171830" fuel_perVeh="16.663940" electricity_perVeh="0"/>
        <edge id="-174955283#5" sampledSeconds="15.63" CO_abs="215.742291" CO2_abs="140265.659968" HC_abs="48.245046" PMx_abs="23.439767" NOx_abs="1070.763920" fuel_abs="59.826687" electricity_abs="0"
            CO_normed="2.698785" CO2_normed="1754.625082" HC_normed="0.603512" PMx_normed="0.293215" NOx_normed="13.394506" fuel_normed="0.748390" electricity_normed="0"
            traveltime="1.72" CO_perVeh="23.805976" CO2_perVeh="15477.544663" HC_perVeh="5.323576" PMx_perVeh="2.586449" NOx_perVeh="118.152914" fuel_perVeh="6.601546" electricity_perVeh="0"/>
        <edge id="-174955283#6" sampledSeconds="768.29" CO_abs="31734.689505" CO2_abs="841646.822089" HC_abs="205.972996" PMx_abs="37.145767" NOx_abs="1307.158688" fuel_abs="361.368430" electricity_abs="0"
            CO_normed="517.922847" CO2_normed="13736.013346" HC_normed="3.361562" PMx_normed="0.606234" NOx_normed="21.333354" fuel_normed="5.897678" electricity_normed="0"
            traveltime="7.35" CO_perVeh="303.599015" CO2_perVeh="8051.855879" HC_perVeh="1.970500" PMx_perVeh="0.355366" NOx_perVeh="12.505309" fuel_perVeh="3.457135" electricity_perVeh="0"/>
        <edge id="-174955283#7" sampledSeconds="281.58" CO_abs="11799.791064" CO2_abs="572057.396834" HC_abs="104.912033" PMx_abs="27.569063" NOx_abs="1040.994624" fuel_abs="245.540042" electricity_abs="0"
            CO_normed="196.614349" CO2_normed="9531.922412" HC_normed="1.748100" PMx_normed="0.459370" NOx_normed="17.345602" fuel_normed="4.091318" electricity_normed="0"
            traveltime="2.68" CO_perVeh="112.333502" CO2_perVeh="5445.961734" HC_perVeh="0.998758" PMx_perVeh="0.262456" NOx_perVeh="9.910224" fuel_perVeh="2.337531" electricity_perVeh="0"/>
        <edge id="-174955283#8" sampledSeconds="465.46" CO_abs="15460.836202" CO2_abs="988469.644787" HC_abs="178.759960" PMx_abs="56.040534" NOx_abs="2239.721074" fuel_abs="424.064799" electricity_abs="0"
            CO_normed="106.986666" CO2_normed="6840.061551" HC_normed="1.236992" PMx_normed="0.387792" NOx_normed="15.498534" fuel_normed="2.934465" electricity_normed="0"
            traveltime="5.15" CO_perVeh="171.026949" CO2_perVeh="10934.398726" HC_perVeh="1.977433" PMx_perVeh="0.619917" NOx_perVeh="24.775676" fuel_perVeh="4.690982" electricity_perVeh="0"/>
        <edge id="-174955284#0" sampledSeconds="56.89" CO_abs="1019.206880" CO2_abs="182571.122228" HC_abs="35.351261" PMx_abs="15.287224" NOx_abs="664.200707" fuel_abs="78.207337" electricity_abs="0"
            CO_normed="81.896787" CO2_normed="14670.219182" HC_normed="2.840596" PMx_normed="1.228381" NOx_normed="53.370817" fuel_normed="6.284229" electricity_normed="0"
            traveltime="0.28" CO_perVeh="5.076616" CO2_perVeh="909.377119" HC_perVeh="0.176083" PMx_perVeh="0.076145" NOx_perVeh="3.308349" fuel_perVeh="0.389547" electricity_perVeh="0"/>
        <edge id="-174955284#1" sampledSeconds="40.45" CO_abs="768.752171" CO2_abs="133732.765630" HC_abs="26.385533" PMx_abs="11.325839" NOx_abs="490.088600" fuel_abs="57.285403" electricity_abs="0"
            CO_normed="217.389528" CO2_normed="37817.262625" HC_normed="7.461362" PMx_normed="3.202747" NOx_normed="138.588395" fuel_normed="16.199299" electricity_normed="0"
            traveltime="0.08" CO_perVeh="1.522282" CO2_perVeh="264.817358" HC_perVeh="0.052249" PMx_perVeh="0.022427" NOx_perVeh="0.970472" fuel_perVeh="0.113436" electricity_perVeh="0"/>
        <edge id="-174955284#2" sampledSeconds="618.06" CO_abs="11911.145722" CO2_abs="1539681.917907" HC_abs="222.642062" PMx_abs="85.245200" NOx_abs="3544.056203" fuel_abs="660.491669" electricity_abs="0"
            CO_normed="38.183911" CO2_normed="4935.803669" HC_normed="0.713730" PMx_normed="0.273273" NOx_normed="11.361285" fuel_normed="2.117358" electricity_normed="0"
            traveltime="7.29" CO_perVeh="140.431875" CO2_perVeh="18152.780953" HC_perVeh="2.624940" PMx_perVeh="1.005037" NOx_perVeh="41.784264" fuel_perVeh="7.787167" electricity_perVeh="0"/>
        <edge id="-174970474#1" sampledSeconds="23.35" CO_abs="687.018288" CO2_abs="353985.367836" HC_abs="142.937153" PMx_abs="71.502612" NOx_abs="2962.044170" fuel_abs="150.938345" electricity_abs="0"
            CO_normed="9.040165" CO2_normed="4657.934594" HC_normed="1.880846" PMx_normed="0.940871" NOx_normed="38.976210" fuel_normed="1.986130" electricity_normed="0"
            traveltime="5.07" CO_perVeh="149.003966" CO2_perVeh="76774.119079" HC_perVeh="31.000925" PMx_perVeh="15.507845" NOx_perVeh="642.422971" fuel_perVeh="32.736264" electricity_perVeh="0"/>
        <edge id="-20437767#0" sampledSeconds="222.47" CO_abs="2780.763898" CO2_abs="1199931.177988" HC_abs="641.422193" PMx_abs="287.295288" NOx_abs="10752.880431" fuel_abs="511.599557" electricity_abs="0"
            CO_normed="25.524498" CO2_normed="11014.110601" HC_normed="5.887583" PMx_normed="2.637070" NOx_normed="98.700173" fuel_normed="4.695948" electricity_normed="0"
            traveltime="7.71" CO_perVeh="96.336313" CO2_perVeh="41570.212083" HC_perVeh="22.221322" PMx_perVeh="9.953009" NOx_perVeh="372.520965" fuel_perVeh="17.723768" electricity_perVeh="0"/>
        <edge id="-20437767#1" sampledSeconds="1582.91" CO_abs="25375.396060" CO2_abs="8819606.714855" HC_abs="5970.145310" PMx_abs="2572.828692" NOx_abs="87382.881524" fuel_abs="3759.299905" electricity_abs="0"
            CO_normed="45.800553" CO2_normed="15918.682116" HC_normed="10.775633" PMx_normed="4.643749" NOx_normed="157.719086" fuel_normed="6.785235" electricity_normed="0"
            traveltime="64.10" CO_perVeh="1027.598788" CO2_perVeh="357157.663527" HC_perVeh="241.766240" PMx_perVeh="104.188941" NOx_perVeh="3538.645974" fuel_perVeh="152.236127" electricity_perVeh="0"/>
        <edge id="-20437774" sampledSeconds="90.19" CO_abs="3216.832293" CO2_abs="143300.877174" HC_abs="17.883650" PMx_abs="2.071334" NOx_abs="56.560336" fuel_abs="61.600389" electricity_abs="0"
            CO_normed="16.519117" CO2_normed="735.880456" HC_normed="0.091836" PMx_normed="0.010637" NOx_normed="0.290449" fuel_normed="0.316331" electricity_normed="0"
            traveltime="8.29" CO_perVeh="295.853518" CO2_perVeh="13179.446340" HC_perVeh="1.644767" PMx_perVeh="0.190502" NOx_perVeh="5.201880" fuel_perVeh="5.665416" electricity_perVeh="0"/>
        <edge id="-20437787" sampledSeconds="85.33" CO_abs="1276.068670" CO2_abs="797934.719035" HC_abs="280.232382" PMx_abs="137.472605" NOx_abs="6181.986703" fuel_abs="340.321474" electricity_abs="0"
            CO_normed="2.390494" CO2_normed="1494.792725" HC_normed="0.524967" PMx_normed="0.257531" NOx_normed="11.580883" fuel_normed="0.637533" electricity_normed="0"
            traveltime="13.21" CO_perVeh="197.575814" CO2_perVeh="123545.546621" HC_perVeh="43.388841" PMx_perVeh="21.285110" NOx_perVeh="957.167182" fuel_perVeh="52.692534" electricity_perVeh="0"/>
        <edge id="-219719294#0" sampledSeconds="1188.74" CO_abs="13819.544975" CO2_abs="5507142.728726" HC_abs="3210.069721" PMx_abs="1417.141714" NOx_abs="51141.814638" fuel_abs="2347.793177" electricity_abs="0"
            CO_normed="17.022282" CO2_normed="6783.445886" HC_normed="3.954017" PMx_normed="1.745570" NOx_normed="62.994142" fuel_normed="2.891904" electricity_normed="0"
            traveltime="75.46" CO_perVeh="877.214484" CO2_perVeh="349573.402964" HC_perVeh="203.763558" PMx_perVeh="89.955005" NOx_perVeh="3246.296502" fuel_perVeh="149.029377" electricity_perVeh="0"/>
        <edge id="-219719294#6" sampledSeconds="227.75" CO_abs="3771.915102" CO2_abs="2066451.528773" HC_abs="826.119744" PMx_abs="398.481601" NOx_abs="16822.806562" fuel_abs="881.232974" electricity_abs="0"
            CO_normed="10.567745" CO2_normed="5789.560924" HC_normed="2.314533" PMx_normed="1.116423" NOx_normed="47.132324" fuel_normed="2.468943" electricity_normed="0"
            traveltime="13.63" CO_perVeh="225.663520" CO2_perVeh="123630.228250" HC_perVeh="49.424519" PMx_perVeh="23.840081" NOx_perVeh="1006.463198" fuel_perVeh="52.721795" electricity_perVeh="0"/>
        <edge id="-219719294#7" sampledSeconds="79.39" CO_abs="1992.366043" CO2_abs="1167540.968071" HC_abs="405.919552" PMx_abs="210.535629" NOx_abs="9301.885754" fuel_abs="497.896111" electricity_abs="0"
            CO_normed="23.041374" CO2_normed="13502.412488" HC_normed="4.694391" PMx_normed="2.434809" NOx_normed="107.574725" fuel_normed="5.758084" electricity_normed="0"
            traveltime="3.60" CO_perVeh="90.241105" CO2_perVeh="52881.942859" HC_perVeh="18.385492" PMx_perVeh="9.535882" NOx_perVeh="421.314373" fuel_perVeh="22.551426" electricity_perVeh="0"/>
        <edge id="-219719294#8" sampledSeconds="1172.94" CO_abs="21026.933856" CO2_abs="8296748.480488" HC_abs="4749.275380" PMx_abs="2145.368722" NOx_abs="77570.853244" fuel_abs="3536.862221" electricity_abs="0"
            CO_normed="91.653877" CO2_normed="36164.529320" HC_normed="20.701520" PMx_normed="9.351404" NOx_normed="338.122025" fuel_normed="15.416757" electricity_normed="0"
            traveltime="26.91" CO_perVeh="482.482673" CO2_perVeh="190376.657511" HC_perVeh="108.976568" PMx_perVeh="49.227493" NOx_perVeh="1779.935814" fuel_perVeh="81.156613" electricity_perVeh="0"/>
        <edge id="-219719294#9" sampledSeconds="930.33" CO_abs="15807.096233" CO2_abs="5731865.867804" HC_abs="3677.514752" PMx_abs="1606.318826" NOx_abs="55668.045693" fuel_abs="2443.279766" electricity_abs="0"
            CO_normed="26.943121" CO2_normed="9769.938456" HC_normed="6.268307" PMx_normed="2.737963" NOx_normed="94.885922" fuel_normed="4.164559" electricity_normed="0"
            traveltime="62.13" CO_perVeh="1055.658233" CO2_perVeh="382795.885070" HC_perVeh="245.598475" PMx_perVeh="107.276104" NOx_perVeh="3717.724614" fuel_perVeh="163.171550" electricity_perVeh="0"/>
        <edge id="-219752764#0" sampledSeconds="32.09" CO_abs="478.393663" CO2_abs="307713.927545" HC_abs="108.602991" PMx_abs="51.992714" NOx_abs="2355.840068" fuel_abs="131.247923" electricity_abs="0"
            CO_normed="1.051985" CO2_normed="676.661454" HC_normed="0.238817" PMx_normed="0.114332" NOx_normed="5.180481" fuel_normed="0.288614" electricity_normed="0"
            traveltime="9.82" CO_perVeh="146.334496" CO2_perVeh="94125.750583" HC_perVeh="33.220264" PMx_perVeh="15.903906" NOx_perVeh="720.621314" fuel_perVeh="40.147059" electricity_perVeh="0"/>
        <edge id="-219752764#1" sampledSeconds="161.47" CO_abs="3480.212591" CO2_abs="1530576.594026" HC_abs="766.908516" PMx_abs="358.016162" NOx_abs="13645.424067" fuel_abs="652.550061" electricity_abs="0"
            CO_normed="5.326334" CO2_normed="2342.489649" HC_normed="1.173725" PMx_normed="0.547930" NOx_normed="20.883806" fuel_normed="0.998703" electricity_normed="0"
            traveltime="50.66" CO_perVeh="1091.884880" CO2_perVeh="480204.412076" HC_perVeh="240.610535" PMx_perVeh="112.324297" NOx_perVeh="4281.127039" fuel_perVeh="204.731615" electricity_perVeh="0"/>
        <edge id="-219752764#2" sampledSeconds="10.22" CO_abs="172.682251" CO2_abs="109054.862815" HC_abs="40.345889" PMx_abs="18.787612" NOx_abs="838.911074" fuel_abs="46.515191" electricity_abs="0"
            CO_normed="1.465226" CO2_normed="925.341586" HC_normed="0.342339" PMx_normed="0.159415" NOx_normed="7.118246" fuel_normed="0.394686" electricity_normed="0"
            traveltime="2.53" CO_perVeh="42.757300" CO2_perVeh="27002.725712" HC_perVeh="9.989917" PMx_perVeh="4.651941" NOx_perVeh="207.720087" fuel_perVeh="11.517478" electricity_perVeh="0"/>
        <edge id="-219752764#3" sampledSeconds="19.92" CO_abs="279.000160" CO2_abs="175047.078183" HC_abs="65.177495" PMx_abs="30.323845" NOx_abs="1349.700663" fuel_abs="74.662442" electricity_abs="0"
            CO_normed="1.057510" CO2_normed="663.490512" HC_normed="0.247046" PMx_normed="0.114938" NOx_normed="5.115844" fuel_normed="0.282997" electricity_normed="0"
            traveltime="5.75" CO_perVeh="80.543299" CO2_perVeh="50533.552094" HC_perVeh="18.815797" PMx_perVeh="8.754054" NOx_perVeh="389.639001" fuel_perVeh="21.553964" electricity_perVeh="0"/>
        <edge id="-22737000" sampledSeconds="3886.17" CO_abs="186485.211240" CO2_abs="6997915.881380" HC_abs="1011.720943" PMx_abs="128.755100" NOx_abs="2891.240289" fuel_abs="3008.164556" electricity_abs="0"
            CO_normed="842.977418" CO2_normed="31632.991279" HC_normed="4.573327" PMx_normed="0.582017" NOx_normed="13.069402" fuel_normed="13.597940" electricity_normed="0"
            traveltime="10.55" CO_perVeh="506.363294" CO2_perVeh="19001.441006" HC_perVeh="2.747126" PMx_perVeh="0.349609" NOx_perVeh="7.850585" fuel_perVeh="8.168069" electricity_perVeh="0"/>
        <edge id="-22737008#1" sampledSeconds="585.03" CO_abs="13845.691258" CO2_abs="8894477.948661" HC_abs="2768.552438" PMx_abs="1480.382416" NOx_abs="68590.966091" fuel_abs="3793.324088" electricity_abs="0"
            CO_normed="20.300775" CO2_normed="13041.226524" HC_normed="4.059296" PMx_normed="2.170560" NOx_normed="100.569177" fuel_normed="5.561833" electricity_normed="0"
            traveltime="19.71" CO_perVeh="466.575399" CO2_perVeh="299728.234571" HC_perVeh="93.295339" PMx_perVeh="49.886279" NOx_perVeh="2311.394698" fuel_perVeh="127.828338" electricity_perVeh="0"/>
        <edge id="-22737021#0" sampledSeconds="426.27" CO_abs="9720.838753" CO2_abs="5336566.967916" HC_abs="1474.544854" PMx_abs="808.670639" NOx_abs="38792.064128" fuel_abs="2276.731962" electricity_abs="0"
            CO_normed="24.256208" CO2_normed="13316.225156" HC_normed="3.679401" PMx_normed="2.017859" NOx_normed="96.797035" fuel_normed="5.681082" electricity_normed="0"